# Force and moment coefficients
# dragDir     : (1.000000e+00 0.000000e+00 0.000000e+00)
# sideDir     : (0.000000e+00 0.000000e+00 -1.000000e+00)
# liftDir     : (0.000000e+00 1.000000e+00 0.000000e+00)
# rollAxis    : (1.000000e+00 0.000000e+00 0.000000e+00)
# pitchAxis   : (0.000000e+00 0.000000e+00 -1.000000e+00)
# yawAxis     : (0.000000e+00 1.000000e+00 0.000000e+00)
# magUInf     : 1.000000e+01
# lRef        : 7.000000e+00
# Aref        : 4.000000e+00
# CofR        : (0.000000e+00 0.000000e+00 0.000000e+00)
#
# Time        	Cd            	Cd(f)         	Cd(r)         	Cl            	Cl(f)         	Cl(r)         	CmPitch       	CmRoll        	CmYaw         	Cs            	Cs(f)         	Cs(r)         
100           	7.660618e-01	3.839327e-01	3.821291e-01	-4.920356e-01	2.296805e-02	-5.150037e-01	2.689859e-01	9.017881e-04	-1.263146e-02	-9.730756e-03	-1.749684e-02	7.766085e-03
200           	7.659112e-01	3.838613e-01	3.820499e-01	-4.939636e-01	2.267125e-02	-5.166348e-01	2.696530e-01	9.056954e-04	-1.269432e-02	-9.536498e-03	-1.746257e-02	7.926071e-03
300           	7.659044e-01	3.838494e-01	3.820550e-01	-4.939363e-01	2.267729e-02	-5.166136e-01	2.696455e-01	8.972377e-04	-1.273172e-02	-9.524365e-03	-1.749390e-02	7.969534e-03
400           	7.658689e-01	3.838074e-01	3.820616e-01	-4.937190e-01	2.276574e-02	-5.164847e-01	2.696252e-01	8.728981e-04	-1.265253e-02	-9.395740e-03	-1.735040e-02	7.954662e-03
500           	7.659130e-01	3.838551e-01	3.820580e-01	-4.939225e-01	2.265128e-02	-5.165738e-01	2.696126e-01	8.985625e-04	-1.269655e-02	-9.513050e-03	-1.745307e-02	7.940024e-03
